ITEM: TIMESTEP
0
ITEM: NUMBER OF ATOMS
8000
ITEM: BOX BOUNDS pp pp pp
0 35.656
0 35.656
0 35.656
ITEM: ATOMS id type xs ys zs
1 1 0 0 0
2 1 0 0.05 0.05
3 1 0.05 0 0.05
4 1 0.05 0.05 0
5 1 0.025 0.025 0.025
9 1 0.1 0 0
10 1 0.1 0.05 0.05
11 1 0.15 0 0.05
12 1 0.15 0.05 0
13 1 0.125 0.025 0.025
17 1 0.2 0 0
18 1 0.2 0.05 0.05
21 1 0.225 0.025 0.025
19 1 0.25 0 0.05
20 1 0.25 0.05 0
25 1 0.3 0 0
26 1 0.3 0.05 0.05
27 1 0.35 0 0.05
28 1 0.35 0.05 0
29 1 0.325 0.025 0.025
33 1 0.4 0 0
34 1 0.4 0.05 0.05
35 1 0.45 0 0.05
36 1 0.45 0.05 0
37 1 0.425 0.025 0.025
41 1 0.5 0 0
42 1 0.5 0.05 0.05
45 1 0.525 0.025 0.025
43 1 0.55 0 0.05
44 1 0.55 0.05 0
49 1 0.6 0 0
50 1 0.6 0.05 0.05
53 1 0.625 0.025 0.025
51 1 0.65 0 0.05
52 1 0.65 0.05 0
57 1 0.7 0 0
58 1 0.7 0.05 0.05
59 1 0.75 0 0.05
60 1 0.75 0.05 0
61 1 0.725 0.025 0.025
65 1 0.8 0 0
66 1 0.8 0.05 0.05
67 1 0.85 0 0.05
68 1 0.85 0.05 0
69 1 0.825 0.025 0.025
73 1 0.9 0 0
74 1 0.9 0.05 0.05
77 1 0.925 0.025 0.025
75 1 0.95 0 0.05
76 1 0.95 0.05 0
81 1 0 0.1 0
83 1 0.05 0.1 0.05
8 1 0.075 0.075 0.025
89 1 0.1 0.1 0
16 1 0.175 0.075 0.025
91 1 0.15 0.1 0.05
97 1 0.2 0.1 0
24 1 0.275 0.075 0.025
99 1 0.25 0.1 0.05
105 1 0.3 0.1 0
107 1 0.35 0.1 0.05
32 1 0.375 0.075 0.025
113 1 0.4 0.1 0
115 1 0.45 0.1 0.05
40 1 0.475 0.075 0.025
121 1 0.5 0.1 0
48 1 0.575 0.075 0.025
123 1 0.55 0.1 0.05
129 1 0.6 0.1 0
56 1 0.675 0.075 0.025
131 1 0.65 0.1 0.05
137 1 0.7 0.1 0
139 1 0.75 0.1 0.05
64 1 0.775 0.075 0.025
145 1 0.8 0.1 0
72 1 0.875 0.075 0.025
147 1 0.85 0.1 0.05
153 1 0.9 0.1 0
80 1 0.975 0.075 0.025
155 1 0.95 0.1 0.05
82 1 0 0.15 0.05
84 1 0.05 0.15 0
85 1 0.025 0.125 0.025
88 1 0.075 0.175 0.025
90 1 0.1 0.15 0.05
92 1 0.15 0.15 0
93 1 0.125 0.125 0.025
96 1 0.175 0.175 0.025
98 1 0.2 0.15 0.05
101 1 0.225 0.125 0.025
100 1 0.25 0.15 0
104 1 0.275 0.175 0.025
106 1 0.3 0.15 0.05
108 1 0.35 0.15 0
109 1 0.325 0.125 0.025
112 1 0.375 0.175 0.025
114 1 0.4 0.15 0.05
116 1 0.45 0.15 0
117 1 0.425 0.125 0.025
120 1 0.475 0.175 0.025
122 1 0.5 0.15 0.05
125 1 0.525 0.125 0.025
124 1 0.55 0.15 0
128 1 0.575 0.175 0.025
130 1 0.6 0.15 0.05
133 1 0.625 0.125 0.025
132 1 0.65 0.15 0
136 1 0.675 0.175 0.025
138 1 0.7 0.15 0.05
140 1 0.75 0.15 0
141 1 0.725 0.125 0.025
144 1 0.775 0.175 0.025
146 1 0.8 0.15 0.05
148 1 0.85 0.15 0
149 1 0.825 0.125 0.025
152 1 0.875 0.175 0.025
154 1 0.9 0.15 0.05
157 1 0.925 0.125 0.025
156 1 0.95 0.15 0
160 1 0.975 0.175 0.025
161 1 0 0.2 0
163 1 0.05 0.2 0.05
165 1 0.025 0.225 0.025
169 1 0.1 0.2 0
171 1 0.15 0.2 0.05
173 1 0.125 0.225 0.025
177 1 0.2 0.2 0
181 1 0.225 0.225 0.025
179 1 0.25 0.2 0.05
185 1 0.3 0.2 0
187 1 0.35 0.2 0.05
189 1 0.325 0.225 0.025
193 1 0.4 0.2 0
195 1 0.45 0.2 0.05
197 1 0.425 0.225 0.025
201 1 0.5 0.2 0
205 1 0.525 0.225 0.025
203 1 0.55 0.2 0.05
209 1 0.6 0.2 0
213 1 0.625 0.225 0.025
211 1 0.65 0.2 0.05
217 1 0.7 0.2 0
219 1 0.75 0.2 0.05
221 1 0.725 0.225 0.025
225 1 0.8 0.2 0
227 1 0.85 0.2 0.05
229 1 0.825 0.225 0.025
233 1 0.9 0.2 0
237 1 0.925 0.225 0.025
235 1 0.95 0.2 0.05
162 1 0 0.25 0.05
164 1 0.05 0.25 0
168 1 0.075 0.275 0.025
170 1 0.1 0.25 0.05
172 1 0.15 0.25 0
176 1 0.175 0.275 0.025
178 1 0.2 0.25 0.05
180 1 0.25 0.25 0
184 1 0.275 0.275 0.025
186 1 0.3 0.25 0.05
188 1 0.35 0.25 0
192 1 0.375 0.275 0.025
194 1 0.4 0.25 0.05
196 1 0.45 0.25 0
200 1 0.475 0.275 0.025
202 1 0.5 0.25 0.05
204 1 0.55 0.25 0
208 1 0.575 0.275 0.025
210 1 0.6 0.25 0.05
212 1 0.65 0.25 0
216 1 0.675 0.275 0.025
218 1 0.7 0.25 0.05
220 1 0.75 0.25 0
224 1 0.775 0.275 0.025
226 1 0.8 0.25 0.05
228 1 0.85 0.25 0
232 1 0.875 0.275 0.025
234 1 0.9 0.25 0.05
236 1 0.95 0.25 0
240 1 0.975 0.275 0.025
241 1 0 0.3 0
242 1 0 0.35 0.05
243 1 0.05 0.3 0.05
244 1 0.05 0.35 0
245 1 0.025 0.325 0.025
249 1 0.1 0.3 0
250 1 0.1 0.35 0.05
251 1 0.15 0.3 0.05
252 1 0.15 0.35 0
253 1 0.125 0.325 0.025
257 1 0.2 0.3 0
258 1 0.2 0.35 0.05
261 1 0.225 0.325 0.025
259 1 0.25 0.3 0.05
260 1 0.25 0.35 0
265 1 0.3 0.3 0
266 1 0.3 0.35 0.05
267 1 0.35 0.3 0.05
268 1 0.35 0.35 0
269 1 0.325 0.325 0.025
273 1 0.4 0.3 0
274 1 0.4 0.35 0.05
275 1 0.45 0.3 0.05
276 1 0.45 0.35 0
277 1 0.425 0.325 0.025
281 1 0.5 0.3 0
282 1 0.5 0.35 0.05
285 1 0.525 0.325 0.025
283 1 0.55 0.3 0.05
284 1 0.55 0.35 0
289 1 0.6 0.3 0
290 1 0.6 0.35 0.05
293 1 0.625 0.325 0.025
291 1 0.65 0.3 0.05
292 1 0.65 0.35 0
297 1 0.7 0.3 0
298 1 0.7 0.35 0.05
299 1 0.75 0.3 0.05
300 1 0.75 0.35 0
301 1 0.725 0.325 0.025
305 1 0.8 0.3 0
306 1 0.8 0.35 0.05
307 1 0.85 0.3 0.05
308 1 0.85 0.35 0
309 1 0.825 0.325 0.025
313 1 0.9 0.3 0
314 1 0.9 0.35 0.05
317 1 0.925 0.325 0.025
315 1 0.95 0.3 0.05
316 1 0.95 0.35 0
321 1 0 0.4 0
323 1 0.05 0.4 0.05
248 1 0.075 0.375 0.025
329 1 0.1 0.4 0
256 1 0.175 0.375 0.025
331 1 0.15 0.4 0.05
337 1 0.2 0.4 0
264 1 0.275 0.375 0.025
339 1 0.25 0.4 0.05
345 1 0.3 0.4 0
347 1 0.35 0.4 0.05
272 1 0.375 0.375 0.025
353 1 0.4 0.4 0
355 1 0.45 0.4 0.05
280 1 0.475 0.375 0.025
361 1 0.5 0.4 0
288 1 0.575 0.375 0.025
363 1 0.55 0.4 0.05
369 1 0.6 0.4 0
296 1 0.675 0.375 0.025
371 1 0.65 0.4 0.05
377 1 0.7 0.4 0
379 1 0.75 0.4 0.05
304 1 0.775 0.375 0.025
385 1 0.8 0.4 0
312 1 0.875 0.375 0.025
387 1 0.85 0.4 0.05
393 1 0.9 0.4 0
320 1 0.975 0.375 0.025
395 1 0.95 0.4 0.05
322 1 0 0.45 0.05
324 1 0.05 0.45 0
325 1 0.025 0.425 0.025
330 1 0.1 0.45 0.05
332 1 0.15 0.45 0
333 1 0.125 0.425 0.025
338 1 0.2 0.45 0.05
341 1 0.225 0.425 0.025
340 1 0.25 0.45 0
346 1 0.3 0.45 0.05
348 1 0.35 0.45 0
349 1 0.325 0.425 0.025
354 1 0.4 0.45 0.05
356 1 0.45 0.45 0
357 1 0.425 0.425 0.025
362 1 0.5 0.45 0.05
365 1 0.525 0.425 0.025
364 1 0.55 0.45 0
370 1 0.6 0.45 0.05
373 1 0.625 0.425 0.025
372 1 0.65 0.45 0
378 1 0.7 0.45 0.05
380 1 0.75 0.45 0
381 1 0.725 0.425 0.025
386 1 0.8 0.45 0.05
388 1 0.85 0.45 0
389 1 0.825 0.425 0.025
394 1 0.9 0.45 0.05
397 1 0.925 0.425 0.025
396 1 0.95 0.45 0
401 1 0 0.5 0
403 1 0.05 0.5 0.05
405 1 0.025 0.525 0.025
328 1 0.075 0.475 0.025
409 1 0.1 0.5 0
336 1 0.175 0.475 0.025
411 1 0.15 0.5 0.05
413 1 0.125 0.525 0.025
417 1 0.2 0.5 0
421 1 0.225 0.525 0.025
344 1 0.275 0.475 0.025
419 1 0.25 0.5 0.05
425 1 0.3 0.5 0
427 1 0.35 0.5 0.05
429 1 0.325 0.525 0.025
352 1 0.375 0.475 0.025
433 1 0.4 0.5 0
435 1 0.45 0.5 0.05
437 1 0.425 0.525 0.025
360 1 0.475 0.475 0.025
441 1 0.5 0.5 0
445 1 0.525 0.525 0.025
368 1 0.575 0.475 0.025
443 1 0.55 0.5 0.05
449 1 0.6 0.5 0
453 1 0.625 0.525 0.025
376 1 0.675 0.475 0.025
451 1 0.65 0.5 0.05
457 1 0.7 0.5 0
459 1 0.75 0.5 0.05
461 1 0.725 0.525 0.025
384 1 0.775 0.475 0.025
465 1 0.8 0.5 0
392 1 0.875 0.475 0.025
467 1 0.85 0.5 0.05
469 1 0.825 0.525 0.025
473 1 0.9 0.5 0
477 1 0.925 0.525 0.025
400 1 0.975 0.475 0.025
475 1 0.95 0.5 0.05
402 1 0 0.55 0.05
404 1 0.05 0.55 0
408 1 0.075 0.575 0.025
410 1 0.1 0.55 0.05
412 1 0.15 0.55 0
416 1 0.175 0.575 0.025
418 1 0.2 0.55 0.05
420 1 0.25 0.55 0
424 1 0.275 0.575 0.025
426 1 0.3 0.55 0.05
428 1 0.35 0.55 0
432 1 0.375 0.575 0.025
434 1 0.4 0.55 0.05
436 1 0.45 0.55 0
440 1 0.475 0.575 0.025
442 1 0.5 0.55 0.05
444 1 0.55 0.55 0
448 1 0.575 0.575 0.025
450 1 0.6 0.55 0.05
452 1 0.65 0.55 0
456 1 0.675 0.575 0.025
458 1 0.7 0.55 0.05
460 1 0.75 0.55 0
464 1 0.775 0.575 0.025
466 1 0.8 0.55 0.05
468 1 0.85 0.55 0
472 1 0.875 0.575 0.025
474 1 0.9 0.55 0.05
476 1 0.95 0.55 0
480 1 0.975 0.575 0.025
481 1 0 0.6 0
483 1 0.05 0.6 0.05
485 1 0.025 0.625 0.025
489 1 0.1 0.6 0
491 1 0.15 0.6 0.05
493 1 0.125 0.625 0.025
497 1 0.2 0.6 0
501 1 0.225 0.625 0.025
499 1 0.25 0.6 0.05
505 1 0.3 0.6 0
507 1 0.35 0.6 0.05
509 1 0.325 0.625 0.025
513 1 0.4 0.6 0
515 1 0.45 0.6 0.05
517 1 0.425 0.625 0.025
521 1 0.5 0.6 0
525 1 0.525 0.625 0.025
523 1 0.55 0.6 0.05
529 1 0.6 0.6 0
533 1 0.625 0.625 0.025
531 1 0.65 0.6 0.05
537 1 0.7 0.6 0
539 1 0.75 0.6 0.05
541 1 0.725 0.625 0.025
545 1 0.8 0.6 0
547 1 0.85 0.6 0.05
549 1 0.825 0.625 0.025
553 1 0.9 0.6 0
557 1 0.925 0.625 0.025
555 1 0.95 0.6 0.05
482 1 0 0.65 0.05
484 1 0.05 0.65 0
561 1 0 0.7 0
563 1 0.05 0.7 0.05
488 1 0.075 0.675 0.025
490 1 0.1 0.65 0.05
569 1 0.1 0.7 0
492 1 0.15 0.65 0
496 1 0.175 0.675 0.025
571 1 0.15 0.7 0.05
498 1 0.2 0.65 0.05
577 1 0.2 0.7 0
500 1 0.25 0.65 0
504 1 0.275 0.675 0.025
579 1 0.25 0.7 0.05
506 1 0.3 0.65 0.05
508 1 0.35 0.65 0
585 1 0.3 0.7 0
587 1 0.35 0.7 0.05
512 1 0.375 0.675 0.025
514 1 0.4 0.65 0.05
593 1 0.4 0.7 0
516 1 0.45 0.65 0
595 1 0.45 0.7 0.05
520 1 0.475 0.675 0.025
522 1 0.5 0.65 0.05
601 1 0.5 0.7 0
524 1 0.55 0.65 0
528 1 0.575 0.675 0.025
603 1 0.55 0.7 0.05
530 1 0.6 0.65 0.05
609 1 0.6 0.7 0
532 1 0.65 0.65 0
536 1 0.675 0.675 0.025
538 1 0.7 0.65 0.05
611 1 0.65 0.7 0.05
617 1 0.7 0.7 0
540 1 0.75 0.65 0
619 1 0.75 0.7 0.05
544 1 0.775 0.675 0.025
546 1 0.8 0.65 0.05
625 1 0.8 0.7 0
548 1 0.85 0.65 0
552 1 0.875 0.675 0.025
627 1 0.85 0.7 0.05
554 1 0.9 0.65 0.05
633 1 0.9 0.7 0
556 1 0.95 0.65 0
560 1 0.975 0.675 0.025
635 1 0.95 0.7 0.05
562 1 0 0.75 0.05
564 1 0.05 0.75 0
565 1 0.025 0.725 0.025
570 1 0.1 0.75 0.05
572 1 0.15 0.75 0
573 1 0.125 0.725 0.025
578 1 0.2 0.75 0.05
581 1 0.225 0.725 0.025
580 1 0.25 0.75 0
586 1 0.3 0.75 0.05
588 1 0.35 0.75 0
589 1 0.325 0.725 0.025
594 1 0.4 0.75 0.05
596 1 0.45 0.75 0
597 1 0.425 0.725 0.025
602 1 0.5 0.75 0.05
605 1 0.525 0.725 0.025
604 1 0.55 0.75 0
610 1 0.6 0.75 0.05
613 1 0.625 0.725 0.025
612 1 0.65 0.75 0
618 1 0.7 0.75 0.05
620 1 0.75 0.75 0
621 1 0.725 0.725 0.025
626 1 0.8 0.75 0.05
628 1 0.85 0.75 0
629 1 0.825 0.725 0.025
634 1 0.9 0.75 0.05
637 1 0.925 0.725 0.025
636 1 0.95 0.75 0
641 1 0 0.8 0
643 1 0.05 0.8 0.05
568 1 0.075 0.775 0.025
649 1 0.1 0.8 0
576 1 0.175 0.775 0.025
651 1 0.15 0.8 0.05
657 1 0.2 0.8 0
584 1 0.275 0.775 0.025
659 1 0.25 0.8 0.05
665 1 0.3 0.8 0
667 1 0.35 0.8 0.05
592 1 0.375 0.775 0.025
673 1 0.4 0.8 0
675 1 0.45 0.8 0.05
600 1 0.475 0.775 0.025
681 1 0.5 0.8 0
608 1 0.575 0.775 0.025
683 1 0.55 0.8 0.05
689 1 0.6 0.8 0
616 1 0.675 0.775 0.025
691 1 0.65 0.8 0.05
697 1 0.7 0.8 0
699 1 0.75 0.8 0.05
624 1 0.775 0.775 0.025
705 1 0.8 0.8 0
632 1 0.875 0.775 0.025
707 1 0.85 0.8 0.05
713 1 0.9 0.8 0
640 1 0.975 0.775 0.025
715 1 0.95 0.8 0.05
642 1 0 0.85 0.05
644 1 0.05 0.85 0
645 1 0.025 0.825 0.025
648 1 0.075 0.875 0.025
650 1 0.1 0.85 0.05
652 1 0.15 0.85 0
653 1 0.125 0.825 0.025
656 1 0.175 0.875 0.025
658 1 0.2 0.85 0.05
661 1 0.225 0.825 0.025
660 1 0.25 0.85 0
664 1 0.275 0.875 0.025
666 1 0.3 0.85 0.05
668 1 0.35 0.85 0
669 1 0.325 0.825 0.025
672 1 0.375 0.875 0.025
674 1 0.4 0.85 0.05
676 1 0.45 0.85 0
677 1 0.425 0.825 0.025
680 1 0.475 0.875 0.025
682 1 0.5 0.85 0.05
685 1 0.525 0.825 0.025
684 1 0.55 0.85 0
688 1 0.575 0.875 0.025
690 1 0.6 0.85 0.05
693 1 0.625 0.825 0.025
692 1 0.65 0.85 0
696 1 0.675 0.875 0.025
698 1 0.7 0.85 0.05
700 1 0.75 0.85 0
701 1 0.725 0.825 0.025
704 1 0.775 0.875 0.025
706 1 0.8 0.85 0.05
708 1 0.85 0.85 0
709 1 0.825 0.825 0.025
712 1 0.875 0.875 0.025
714 1 0.9 0.85 0.05
717 1 0.925 0.825 0.025
716 1 0.95 0.85 0
720 1 0.975 0.875 0.025
721 1 0 0.9 0
723 1 0.05 0.9 0.05
725 1 0.025 0.925 0.025
729 1 0.1 0.9 0
731 1 0.15 0.9 0.05
733 1 0.125 0.925 0.025
737 1 0.2 0.9 0
741 1 0.225 0.925 0.025
739 1 0.25 0.9 0.05
745 1 0.3 0.9 0
747 1 0.35 0.9 0.05
749 1 0.325 0.925 0.025
753 1 0.4 0.9 0
755 1 0.45 0.9 0.05
757 1 0.425 0.925 0.025
761 1 0.5 0.9 0
765 1 0.525 0.925 0.025
763 1 0.55 0.9 0.05
769 1 0.6 0.9 0
773 1 0.625 0.925 0.025
771 1 0.65 0.9 0.05
777 1 0.7 0.9 0
779 1 0.75 0.9 0.05
781 1 0.725 0.925 0.025
785 1 0.8 0.9 0
787 1 0.85 0.9 0.05
789 1 0.825 0.925 0.025
793 1 0.9 0.9 0
797 1 0.925 0.925 0.025
795 1 0.95 0.9 0.05
722 1 0 0.95 0.05
724 1 0.05 0.95 0
728 1 0.075 0.975 0.025
730 1 0.1 0.95 0.05
732 1 0.15 0.95 0
736 1 0.175 0.975 0.025
738 1 0.2 0.95 0.05
740 1 0.25 0.95 0
744 1 0.275 0.975 0.025
746 1 0.3 0.95 0.05
748 1 0.35 0.95 0
752 1 0.375 0.975 0.025
754 1 0.4 0.95 0.05
756 1 0.45 0.95 0
760 1 0.475 0.975 0.025
762 1 0.5 0.95 0.05
764 1 0.55 0.95 0
768 1 0.575 0.975 0.025
770 1 0.6 0.95 0.05
772 1 0.65 0.95 0
776 1 0.675 0.975 0.025
778 1 0.7 0.95 0.05
780 1 0.75 0.95 0
784 1 0.775 0.975 0.025
786 1 0.8 0.95 0.05
788 1 0.85 0.95 0
792 1 0.875 0.975 0.025
794 1 0.9 0.95 0.05
796 1 0.95 0.95 0
800 1 0.975 0.975 0.025
801 1 0 0 0.1
804 1 0.05 0.05 0.1
7 1 0.075 0.025 0.075
809 1 0.1 0 0.1
15 1 0.175 0.025 0.075
812 1 0.15 0.05 0.1
817 1 0.2 0 0.1
23 1 0.275 0.025 0.075
820 1 0.25 0.05 0.1
825 1 0.3 0 0.1
828 1 0.35 0.05 0.1
31 1 0.375 0.025 0.075
833 1 0.4 0 0.1
836 1 0.45 0.05 0.1
39 1 0.475 0.025 0.075
841 1 0.5 0 0.1
47 1 0.575 0.025 0.075
844 1 0.55 0.05 0.1
849 1 0.6 0 0.1
55 1 0.675 0.025 0.075
852 1 0.65 0.05 0.1
857 1 0.7 0 0.1
860 1 0.75 0.05 0.1
63 1 0.775 0.025 0.075
865 1 0.8 0 0.1
71 1 0.875 0.025 0.075
868 1 0.85 0.05 0.1
873 1 0.9 0 0.1
79 1 0.975 0.025 0.075
876 1 0.95 0.05 0.1
6 1 0.025 0.075 0.075
881 1 0 0.1 0.1
889 1 0.1 0.1 0.1
14 1 0.125 0.075 0.075
22 1 0.225 0.075 0.075
897 1 0.2 0.1 0.1
30 1 0.325 0.075 0.075
905 1 0.3 0.1 0.1
913 1 0.4 0.1 0.1
38 1 0.425 0.075 0.075
46 1 0.525 0.075 0.075
921 1 0.5 0.1 0.1
54 1 0.625 0.075 0.075
929 1 0.6 0.1 0.1
937 1 0.7 0.1 0.1
62 1 0.725 0.075 0.075
945 1 0.8 0.1 0.1
70 1 0.825 0.075 0.075
78 1 0.925 0.075 0.075
953 1 0.9 0.1 0.1
86 1 0.025 0.175 0.075
884 1 0.05 0.15 0.1
87 1 0.075 0.125 0.075
94 1 0.125 0.175 0.075
95 1 0.175 0.125 0.075
892 1 0.15 0.15 0.1
102 1 0.225 0.175 0.075
103 1 0.275 0.125 0.075
900 1 0.25 0.15 0.1
110 1 0.325 0.175 0.075
908 1 0.35 0.15 0.1
111 1 0.375 0.125 0.075
118 1 0.425 0.175 0.075
916 1 0.45 0.15 0.1
119 1 0.475 0.125 0.075
126 1 0.525 0.175 0.075
127 1 0.575 0.125 0.075
924 1 0.55 0.15 0.1
134 1 0.625 0.175 0.075
135 1 0.675 0.125 0.075
932 1 0.65 0.15 0.1
142 1 0.725 0.175 0.075
940 1 0.75 0.15 0.1
143 1 0.775 0.125 0.075
150 1 0.825 0.175 0.075
151 1 0.875 0.125 0.075
948 1 0.85 0.15 0.1
158 1 0.925 0.175 0.075
159 1 0.975 0.125 0.075
956 1 0.95 0.15 0.1
961 1 0 0.2 0.1
167 1 0.075 0.225 0.075
969 1 0.1 0.2 0.1
175 1 0.175 0.225 0.075
977 1 0.2 0.2 0.1
183 1 0.275 0.225 0.075
985 1 0.3 0.2 0.1
191 1 0.375 0.225 0.075
993 1 0.4 0.2 0.1
199 1 0.475 0.225 0.075
1001 1 0.5 0.2 0.1
207 1 0.575 0.225 0.075
1009 1 0.6 0.2 0.1
215 1 0.675 0.225 0.075
1017 1 0.7 0.2 0.1
223 1 0.775 0.225 0.075
1025 1 0.8 0.2 0.1
231 1 0.875 0.225 0.075
1033 1 0.9 0.2 0.1
239 1 0.975 0.225 0.075
166 1 0.025 0.275 0.075
964 1 0.05 0.25 0.1
174 1 0.125 0.275 0.075
972 1 0.15 0.25 0.1
182 1 0.225 0.275 0.075
980 1 0.25 0.25 0.1
190 1 0.325 0.275 0.075
988 1 0.35 0.25 0.1
198 1 0.425 0.275 0.075
996 1 0.45 0.25 0.1
206 1 0.525 0.275 0.075
1004 1 0.55 0.25 0.1
214 1 0.625 0.275 0.075
1012 1 0.65 0.25 0.1
222 1 0.725 0.275 0.075
1020 1 0.75 0.25 0.1
230 1 0.825 0.275 0.075
1028 1 0.85 0.25 0.1
238 1 0.925 0.275 0.075
1036 1 0.95 0.25 0.1
1041 1 0 0.3 0.1
1044 1 0.05 0.35 0.1
247 1 0.075 0.325 0.075
1049 1 0.1 0.3 0.1
255 1 0.175 0.325 0.075
1052 1 0.15 0.35 0.1
1057 1 0.2 0.3 0.1
263 1 0.275 0.325 0.075
1060 1 0.25 0.35 0.1
1065 1 0.3 0.3 0.1
1068 1 0.35 0.35 0.1
271 1 0.375 0.325 0.075
1073 1 0.4 0.3 0.1
1076 1 0.45 0.35 0.1
279 1 0.475 0.325 0.075
1081 1 0.5 0.3 0.1
287 1 0.575 0.325 0.075
1084 1 0.55 0.35 0.1
1089 1 0.6 0.3 0.1
295 1 0.675 0.325 0.075
1092 1 0.65 0.35 0.1
1097 1 0.7 0.3 0.1
1100 1 0.75 0.35 0.1
303 1 0.775 0.325 0.075
1105 1 0.8 0.3 0.1
311 1 0.875 0.325 0.075
1108 1 0.85 0.35 0.1
1113 1 0.9 0.3 0.1
319 1 0.975 0.325 0.075
1116 1 0.95 0.35 0.1
246 1 0.025 0.375 0.075
1121 1 0 0.4 0.1
1129 1 0.1 0.4 0.1
254 1 0.125 0.375 0.075
262 1 0.225 0.375 0.075
1137 1 0.2 0.4 0.1
270 1 0.325 0.375 0.075
1145 1 0.3 0.4 0.1
1153 1 0.4 0.4 0.1
278 1 0.425 0.375 0.075
286 1 0.525 0.375 0.075
1161 1 0.5 0.4 0.1
294 1 0.625 0.375 0.075
1169 1 0.6 0.4 0.1
1177 1 0.7 0.4 0.1
302 1 0.725 0.375 0.075
1185 1 0.8 0.4 0.1
310 1 0.825 0.375 0.075
318 1 0.925 0.375 0.075
1193 1 0.9 0.4 0.1
1124 1 0.05 0.45 0.1
327 1 0.075 0.425 0.075
335 1 0.175 0.425 0.075
1132 1 0.15 0.45 0.1
343 1 0.275 0.425 0.075
1140 1 0.25 0.45 0.1
1148 1 0.35 0.45 0.1
351 1 0.375 0.425 0.075
1156 1 0.45 0.45 0.1
359 1 0.475 0.425 0.075
367 1 0.575 0.425 0.075
1164 1 0.55 0.45 0.1
375 1 0.675 0.425 0.075
1172 1 0.65 0.45 0.1
1180 1 0.75 0.45 0.1
383 1 0.775 0.425 0.075
391 1 0.875 0.425 0.075
1188 1 0.85 0.45 0.1
399 1 0.975 0.425 0.075
1196 1 0.95 0.45 0.1
326 1 0.025 0.475 0.075
1201 1 0 0.5 0.1
407 1 0.075 0.525 0.075
1209 1 0.1 0.5 0.1
334 1 0.125 0.475 0.075
415 1 0.175 0.525 0.075
342 1 0.225 0.475 0.075
1217 1 0.2 0.5 0.1
423 1 0.275 0.525 0.075
350 1 0.325 0.475 0.075
1225 1 0.3 0.5 0.1
431 1 0.375 0.525 0.075
1233 1 0.4 0.5 0.1
358 1 0.425 0.475 0.075
366 1 0.525 0.475 0.075
439 1 0.475 0.525 0.075
1241 1 0.5 0.5 0.1
447 1 0.575 0.525 0.075
374 1 0.625 0.475 0.075
1249 1 0.6 0.5 0.1
455 1 0.675 0.525 0.075
1257 1 0.7 0.5 0.1
382 1 0.725 0.475 0.075
463 1 0.775 0.525 0.075
1265 1 0.8 0.5 0.1
390 1 0.825 0.475 0.075
471 1 0.875 0.525 0.075
398 1 0.925 0.475 0.075
1273 1 0.9 0.5 0.1
479 1 0.975 0.525 0.075
406 1 0.025 0.575 0.075
1204 1 0.05 0.55 0.1
414 1 0.125 0.575 0.075
1212 1 0.15 0.55 0.1
422 1 0.225 0.575 0.075
1220 1 0.25 0.55 0.1
430 1 0.325 0.575 0.075
1228 1 0.35 0.55 0.1
438 1 0.425 0.575 0.075
1236 1 0.45 0.55 0.1
446 1 0.525 0.575 0.075
1244 1 0.55 0.55 0.1
454 1 0.625 0.575 0.075
1252 1 0.65 0.55 0.1
462 1 0.725 0.575 0.075
1260 1 0.75 0.55 0.1
470 1 0.825 0.575 0.075
1268 1 0.85 0.55 0.1
478 1 0.925 0.575 0.075
1276 1 0.95 0.55 0.1
1281 1 0 0.6 0.1
487 1 0.075 0.625 0.075
1289 1 0.1 0.6 0.1
495 1 0.175 0.625 0.075
1297 1 0.2 0.6 0.1
503 1 0.275 0.625 0.075
1305 1 0.3 0.6 0.1
511 1 0.375 0.625 0.075
1313 1 0.4 0.6 0.1
519 1 0.475 0.625 0.075
1321 1 0.5 0.6 0.1
527 1 0.575 0.625 0.075
1329 1 0.6 0.6 0.1
535 1 0.675 0.625 0.075
1337 1 0.7 0.6 0.1
543 1 0.775 0.625 0.075
1345 1 0.8 0.6 0.1
551 1 0.875 0.625 0.075
1353 1 0.9 0.6 0.1
559 1 0.975 0.625 0.075
486 1 0.025 0.675 0.075
1284 1 0.05 0.65 0.1
1361 1 0 0.7 0.1
1369 1 0.1 0.7 0.1
494 1 0.125 0.675 0.075
1292 1 0.15 0.65 0.1
502 1 0.225 0.675 0.075
1377 1 0.2 0.7 0.1
1300 1 0.25 0.65 0.1
510 1 0.325 0.675 0.075
1308 1 0.35 0.65 0.1
1385 1 0.3 0.7 0.1
1393 1 0.4 0.7 0.1
518 1 0.425 0.675 0.075
1316 1 0.45 0.65 0.1
526 1 0.525 0.675 0.075
1401 1 0.5 0.7 0.1
1324 1 0.55 0.65 0.1
534 1 0.625 0.675 0.075
1409 1 0.6 0.7 0.1
1332 1 0.65 0.65 0.1
1417 1 0.7 0.7 0.1
542 1 0.725 0.675 0.075
1340 1 0.75 0.65 0.1
1425 1 0.8 0.7 0.1
550 1 0.825 0.675 0.075
1348 1 0.85 0.65 0.1
558 1 0.925 0.675 0.075
1433 1 0.9 0.7 0.1
1356 1 0.95 0.65 0.1
1364 1 0.05 0.75 0.1
567 1 0.075 0.725 0.075
575 1 0.175 0.725 0.075
1372 1 0.15 0.75 0.1
583 1 0.275 0.725 0.075
1380 1 0.25 0.75 0.1
1388 1 0.35 0.75 0.1
591 1 0.375 0.725 0.075
1396 1 0.45 0.75 0.1
599 1 0.475 0.725 0.075
607 1 0.575 0.725 0.075
1404 1 0.55 0.75 0.1
615 1 0.675 0.725 0.075
1412 1 0.65 0.75 0.1
1420 1 0.75 0.75 0.1
623 1 0.775 0.725 0.075
631 1 0.875 0.725 0.075
1428 1 0.85 0.75 0.1
639 1 0.975 0.725 0.075
1436 1 0.95 0.75 0.1
566 1 0.025 0.775 0.075
1441 1 0 0.8 0.1
1449 1 0.1 0.8 0.1
574 1 0.125 0.775 0.075
582 1 0.225 0.775 0.075
1457 1 0.2 0.8 0.1
590 1 0.325 0.775 0.075
1465 1 0.3 0.8 0.1
1473 1 0.4 0.8 0.1
598 1 0.425 0.775 0.075
606 1 0.525 0.775 0.075
1481 1 0.5 0.8 0.1
614 1 0.625 0.775 0.075
1489 1 0.6 0.8 0.1
1497 1 0.7 0.8 0.1
622 1 0.725 0.775 0.075
1505 1 0.8 0.8 0.1
630 1 0.825 0.775 0.075
638 1 0.925 0.775 0.075
1513 1 0.9 0.8 0.1
646 1 0.025 0.875 0.075
1444 1 0.05 0.85 0.1
647 1 0.075 0.825 0.075
654 1 0.125 0.875 0.075
655 1 0.175 0.825 0.075
1452 1 0.15 0.85 0.1
662 1 0.225 0.875 0.075
663 1 0.275 0.825 0.075
1460 1 0.25 0.85 0.1
670 1 0.325 0.875 0.075
1468 1 0.35 0.85 0.1
671 1 0.375 0.825 0.075
678 1 0.425 0.875 0.075
1476 1 0.45 0.85 0.1
679 1 0.475 0.825 0.075
686 1 0.525 0.875 0.075
687 1 0.575 0.825 0.075
1484 1 0.55 0.85 0.1
694 1 0.625 0.875 0.075
695 1 0.675 0.825 0.075
1492 1 0.65 0.85 0.1
702 1 0.725 0.875 0.075
1500 1 0.75 0.85 0.1
703 1 0.775 0.825 0.075
710 1 0.825 0.875 0.075
711 1 0.875 0.825 0.075
1508 1 0.85 0.85 0.1
718 1 0.925 0.875 0.075
719 1 0.975 0.825 0.075
1516 1 0.95 0.85 0.1
1521 1 0 0.9 0.1
727 1 0.075 0.925 0.075
1529 1 0.1 0.9 0.1
735 1 0.175 0.925 0.075
1537 1 0.2 0.9 0.1
743 1 0.275 0.925 0.075
1545 1 0.3 0.9 0.1
751 1 0.375 0.925 0.075
1553 1 0.4 0.9 0.1
759 1 0.475 0.925 0.075
1561 1 0.5 0.9 0.1
767 1 0.575 0.925 0.075
1569 1 0.6 0.9 0.1
775 1 0.675 0.925 0.075
1577 1 0.7 0.9 0.1
783 1 0.775 0.925 0.075
1585 1 0.8 0.9 0.1
791 1 0.875 0.925 0.075
1593 1 0.9 0.9 0.1
799 1 0.975 0.925 0.075
726 1 0.025 0.975 0.075
1524 1 0.05 0.95 0.1
734 1 0.125 0.975 0.075
1532 1 0.15 0.95 0.1
742 1 0.225 0.975 0.075
1540 1 0.25 0.95 0.1
750 1 0.325 0.975 0.075
1548 1 0.35 0.95 0.1
758 1 0.425 0.975 0.075
1556 1 0.45 0.95 0.1
766 1 0.525 0.975 0.075
1564 1 0.55 0.95 0.1
774 1 0.625 0.975 0.075
1572 1 0.65 0.95 0.1
782 1 0.725 0.975 0.075
1580 1 0.75 0.95 0.1
790 1 0.825 0.975 0.075
1588 1 0.85 0.95 0.1
798 1 0.925 0.975 0.075
1596 1 0.95 0.95 0.1
802 1 0 0.05 0.15
803 1 0.05 0 0.15
805 1 0.025 0.025 0.125
807 1 0.075 0.025 0.175
810 1 0.1 0.05 0.15
811 1 0.15 0 0.15
813 1 0.125 0.025 0.125
815 1 0.175 0.025 0.175
818 1 0.2 0.05 0.15
821 1 0.225 0.025 0.125
819 1 0.25 0 0.15
823 1 0.275 0.025 0.175
826 1 0.3 0.05 0.15
827 1 0.35 0 0.15
829 1 0.325 0.025 0.125
831 1 0.375 0.025 0.175
834 1 0.4 0.05 0.15
835 1 0.45 0 0.15
837 1 0.425 0.025 0.125
839 1 0.475 0.025 0.175
842 1 0.5 0.05 0.15
845 1 0.525 0.025 0.125
843 1 0.55 0 0.15
847 1 0.575 0.025 0.175
850 1 0.6 0.05 0.15
853 1 0.625 0.025 0.125
851 1 0.65 0 0.15
855 1 0.675 0.025 0.175
858 1 0.7 0.05 0.15
859 1 0.75 0 0.15
861 1 0.725 0.025 0.125
863 1 0.775 0.025 0.175
866 1 0.8 0.05 0.15
867 1 0.85 0 0.15
869 1 0.825 0.025 0.125
871 1 0.875 0.025 0.175
874 1 0.9 0.05 0.15
877 1 0.925 0.025 0.125
875 1 0.95 0 0.15
879 1 0.975 0.025 0.175
806 1 0.025 0.075 0.175
883 1 0.05 0.1 0.15
808 1 0.075 0.075 0.125
814 1 0.125 0.075 0.175
816 1 0.175 0.075 0.125
891 1 0.15 0.1 0.15
822 1 0.225 0.075 0.175
824 1 0.275 0.075 0.125
899 1 0.25 0.1 0.15
830 1 0.325 0.075 0.175
907 1 0.35 0.1 0.15
832 1 0.375 0.075 0.125
838 1 0.425 0.075 0.175
915 1 0.45 0.1 0.15
840 1 0.475 0.075 0.125
846 1 0.525 0.075 0.175
848 1 0.575 0.075 0.125
923 1 0.55 0.1 0.15
854 1 0.625 0.075 0.175
856 1 0.675 0.075 0.125
931 1 0.65 0.1 0.15
862 1 0.725 0.075 0.175
939 1 0.75 0.1 0.15
864 1 0.775 0.075 0.125
870 1 0.825 0.075 0.175
872 1 0.875 0.075 0.125
947 1 0.85 0.1 0.15
878 1 0.925 0.075 0.175
880 1 0.975 0.075 0.125
955 1 0.95 0.1 0.15
882 1 0 0.15 0.15
885 1 0.025 0.125 0.125
886 1 0.025 0.175 0.175
887 1 0.075 0.125 0.175
888 1 0.075 0.175 0.125
890 1 0.1 0.15 0.15
893 1 0.125 0.125 0.125
894 1 0.125 0.175 0.175
895 1 0.175 0.125 0.175
896 1 0.175 0.175 0.125
898 1 0.2 0.15 0.15
901 1 0.225 0.125 0.125
902 1 0.225 0.175 0.175
903 1 0.275 0.125 0.175
904 1 0.275 0.175 0.125
906 1 0.3 0.15 0.15
909 1 0.325 0.125 0.125
910 1 0.325 0.175 0.175
911 1 0.375 0.125 0.175
912 1 0.375 0.175 0.125
914 1 0.4 0.15 0.15
917 1 0.425 0.125 0.125
918 1 0.425 0.175 0.175
919 1 0.475 0.125 0.175
920 1 0.475 0.175 0.125
922 1 0.5 0.15 0.15
925 1 0.525 0.125 0.125
926 1 0.525 0.175 0.175
927 1 0.575 0.125 0.175
928 1 0.575 0.175 0.125
930 1 0.6 0.15 0.15
933 1 0.625 0.125 0.125
934 1 0.625 0.175 0.175
935 1 0.675 0.125 0.175
936 1 0.675 0.175 0.125
938 1 0.7 0.15 0.15
941 1 0.725 0.125 0.125
942 1 0.725 0.175 0.175
943 1 0.775 0.125 0.175
944 1 0.775 0.175 0.125
946 1 0.8 0.15 0.15
949 1 0.825 0.125 0.125
950 1 0.825 0.175 0.175
951 1 0.875 0.125 0.175
952 1 0.875 0.175 0.125
954 1 0.9 0.15 0.15
957 1 0.925 0.125 0.125
958 1 0.925 0.175 0.175
959 1 0.975 0.125 0.175
960 1 0.975 0.175 0.125
963 1 0.05 0.2 0.15
965 1 0.025 0.225 0.125
967 1 0.075 0.225 0.175
971 1 0.15 0.2 0.15
973 1 0.125 0.225 0.125
975 1 0.175 0.225 0.175
981 1 0.225 0.225 0.125
979 1 0.25 0.2 0.15
983 1 0.275 0.225 0.175
987 1 0.35 0.2 0.15
989 1 0.325 0.225 0.125
991 1 0.375 0.225 0.175
995 1 0.45 0.2 0.15
997 1 0.425 0.225 0.125
999 1 0.475 0.225 0.175
1005 1 0.525 0.225 0.125
1003 1 0.55 0.2 0.15
1007 1 0.575 0.225 0.175
1013 1 0.625 0.225 0.125
1011 1 0.65 0.2 0.15
1015 1 0.675 0.225 0.175
1019 1 0.75 0.2 0.15
1021 1 0.725 0.225 0.125
1023 1 0.775 0.225 0.175
1027 1 0.85 0.2 0.15
1029 1 0.825 0.225 0.125
1031 1 0.875 0.225 0.175
1037 1 0.925 0.225 0.125
1035 1 0.95 0.2 0.15
1039 1 0.975 0.225 0.175
962 1 0 0.25 0.15
966 1 0.025 0.275 0.175
968 1 0.075 0.275 0.125
970 1 0.1 0.25 0.15
974 1 0.125 0.275 0.175
976 1 0.175 0.275 0.125
978 1 0.2 0.25 0.15
982 1 0.225 0.275 0.175
984 1 0.275 0.275 0.125
986 1 0.3 0.25 0.15
990 1 0.325 0.275 0.175
992 1 0.375 0.275 0.125
994 1 0.4 0.25 0.15
998 1 0.425 0.275 0.175
1000 1 0.475 0.275 0.125
1002 1 0.5 0.25 0.15
1006 1 0.525 0.275 0.175
1008 1 0.575 0.275 0.125
1010 1 0.6 0.25 0.15
1014 1 0.625 0.275 0.175
1016 1 0.675 0.275 0.125
1018 1 0.7 0.25 0.15
1022 1 0.725 0.275 0.175
1024 1 0.775 0.275 0.125
1026 1 0.8 0.25 0.15
1030 1 0.825 0.275 0.175
1032 1 0.875 0.275 0.125
1034 1 0.9 0.25 0.15
1038 1 0.925 0.275 0.175
1040 1 0.975 0.275 0.125
1042 1 0 0.35 0.15
1043 1 0.05 0.3 0.15
1045 1 0.025 0.325 0.125
1047 1 0.075 0.325 0.175
1050 1 0.1 0.35 0.15
1051 1 0.15 0.3 0.15
1053 1 0.125 0.325 0.125
1055 1 0.175 0.325 0.175
1058 1 0.2 0.35 0.15
1061 1 0.225 0.325 0.125
1059 1 0.25 0.3 0.15
1063 1 0.275 0.325 0.175
1066 1 0.3 0.35 0.15
1067 1 0.35 0.3 0.15
1069 1 0.325 0.325 0.125
1071 1 0.375 0.325 0.175
1074 1 0.4 0.35 0.15
1075 1 0.45 0.3 0.15
1077 1 0.425 0.325 0.125
1079 1 0.475 0.325 0.175
1082 1 0.5 0.35 0.15
1085 1 0.525 0.325 0.125
1083 1 0.55 0.3 0.15
1087 1 0.575 0.325 0.175
1090 1 0.6 0.35 0.15
1093 1 0.625 0.325 0.125
1091 1 0.65 0.3 0.15
1095 1 0.675 0.325 0.175
1098 1 0.7 0.35 0.15
1099 1 0.75 0.3 0.15
1101 1 0.725 0.325 0.125
1103 1 0.775 0.325 0.175
1106 1 0.8 0.35 0.15
1107 1 0.85 0.3 0.15
1109 1 0.825 0.325 0.125
1111 1 0.875 0.325 0.175
1114 1 0.9 0.35 0.15
1117 1 0.925 0.325 0.125
1115 1 0.95 0.3 0.15
1119 1 0.975 0.325 0.175
1046 1 0.025 0.375 0.175
1123 1 0.05 0.4 0.15
1048 1 0.075 0.375 0.125
1054 1 0.125 0.375 0.175
1056 1 0.175 0.375 0.125
1131 1 0.15 0.4 0.15
1062 1 0.225 0.375 0.175
1064 1 0.275 0.375 0.125
1139 1 0.25 0.4 0.15
1070 1 0.325 0.375 0.175
1147 1 0.35 0.4 0.15
1072 1 0.375 0.375 0.125
1078 1 0.425 0.375 0.175
1155 1 0.45 0.4 0.15
1080 1 0.475 0.375 0.125
1086 1 0.525 0.375 0.175
1088 1 0.575 0.375 0.125
1163 1 0.55 0.4 0.15
1094 1 0.625 0.375 0.175
1096 1 0.675 0.375 0.125
1171 1 0.65 0.4 0.15
1102 1 0.725 0.375 0.175
1179 1 0.75 0.4 0.15
1104 1 0.775 0.375 0.125
1110 1 0.825 0.375 0.175
1112 1 0.875 0.375 0.125
1187 1 0.85 0.4 0.15
1118 1 0.925 0.375 0.175
1120 1 0.975 0.375 0.125
1195 1 0.95 0.4 0.15
1122 1 0 0.45 0.15
1125 1 0.025 0.425 0.125
1127 1 0.075 0.425 0.175
1130 1 0.1 0.45 0.15
1133 1 0.125 0.425 0.125
1135 1 0.175 0.425 0.175
1138 1 0.2 0.45 0.15
1141 1 0.225 0.425 0.125
1143 1 0.275 0.425 0.175
1146 1 0.3 0.45 0.15
1149 1 0.325 0.425 0.125
1151 1 0.375 0.425 0.175
1154 1 0.4 0.45 0.15
1157 1 0.425 0.425 0.125
1159 1 0.475 0.425 0.175
1162 1 0.5 0.45 0.15
1165 1 0.525 0.425 0.125
1167 1 0.575 0.425 0.175
1170 1 0.6 0.45 0.15
1173 1 0.625 0.425 0.125
1175 1 0.675 0.425 0.175
1178 1 0.7 0.45 0.15
1181 1 0.725 0.425 0.125
1183 1 0.775 0.425 0.175
1186 1 0.8 0.45 0.15
1189 1 0.825 0.425 0.125
1191 1 0.875 0.425 0.175
1194 1 0.9 0.45 0.15
1197 1 0.925 0.425 0.125
1199 1 0.975 0.425 0.175
1126 1 0.025 0.475 0.175
1203 1 0.05 0.5 0.15
1205 1 0.025 0.525 0.125
1128 1 0.075 0.475 0.125
1207 1 0.075 0.525 0.175
1134 1 0.125 0.475 0.175
1136 1 0.175 0.475 0.125
1211 1 0.15 0.5 0.15
1213 1 0.125 0.525 0.125
1215 1 0.175 0.525 0.175
1142 1 0.225 0.475 0.175
1221 1 0.225 0.525 0.125
1144 1 0.275 0.475 0.125
1219 1 0.25 0.5 0.15
1223 1 0.275 0.525 0.175
1150 1 0.325 0.475 0.175
1227 1 0.35 0.5 0.15
1229 1 0.325 0.525 0.125
1152 1 0.375 0.475 0.125
1231 1 0.375 0.525 0.175
1158 1 0.425 0.475 0.175
1235 1 0.45 0.5 0.15
1237 1 0.425 0.525 0.125
1160 1 0.475 0.475 0.125
1166 1 0.525 0.475 0.175
1239 1 0.475 0.525 0.175
1245 1 0.525 0.525 0.125
1168 1 0.575 0.475 0.125
1243 1 0.55 0.5 0.15
1247 1 0.575 0.525 0.175
1174 1 0.625 0.475 0.175
1253 1 0.625 0.525 0.125
1176 1 0.675 0.475 0.125
1251 1 0.65 0.5 0.15
1255 1 0.675 0.525 0.175
1182 1 0.725 0.475 0.175
1259 1 0.75 0.5 0.15
1261 1 0.725 0.525 0.125
1184 1 0.775 0.475 0.125
1263 1 0.775 0.525 0.175
1190 1 0.825 0.475 0.175
1192 1 0.875 0.475 0.125
1267 1 0.85 0.5 0.15
1269 1 0.825 0.525 0.125
1271 1 0.875 0.525 0.175
1198 1 0.925 0.475 0.175
1277 1 0.925 0.525 0.125
1200 1 0.975 0.475 0.125
1275 1 0.95 0.5 0.15
1279 1 0.975 0.525 0.175
1202 1 0 0.55 0.15
1206 1 0.025 0.575 0.175
1208 1 0.075 0.575 0.125
1210 1 0.1 0.55 0.15
1214 1 0.125 0.575 0.175
1216 1 0.175 0.575 0.125
1218 1 0.2 0.55 0.15
1222 1 0.225 0.575 0.175
1224 1 0.275 0.575 0.125
1226 1 0.3 0.55 0.15
1230 1 0.325 0.575 0.175
1232 1 0.375 0.575 0.125
1234 1 0.4 0.55 0.15
1238 1 0.425 0.575 0.175
1240 1 0.475 0.575 0.125
1242 1 0.5 0.55 0.15
1246 1 0.525 0.575 0.175
1248 1 0.575 0.575 0.125
1250 1 0.6 0.55 0.15
1254 1 0.625 0.575 0.175
1256 1 0.675 0.575 0.125
1258 1 0.7 0.55 0.15
1262 1 0.725 0.575 0.175
1264 1 0.775 0.575 0.125
1266 1 0.8 0.55 0.15
1270 1 0.825 0.575 0.175
1272 1 0.875 0.575 0.125
1274 1 0.9 0.55 0.15
1278 1 0.925 0.575 0.175
1280 1 0.975 0.575 0.125
1283 1 0.05 0.6 0.15
1285 1 0.025 0.625 0.125
1287 1 0.075 0.625 0.175
1291 1 0.15 0.6 0.15
1293 1 0.125 0.625 0.125
1295 1 0.175 0.625 0.175
1301 1 0.225 0.625 0.125
1299 1 0.25 0.6 0.15
1303 1 0.275 0.625 0.175
1307 1 0.35 0.6 0.15
1309 1 0.325 0.625 0.125
1311 1 0.375 0.625 0.175
1315 1 0.45 0.6 0.15
1317 1 0.425 0.625 0.125
1319 1 0.475 0.625 0.175
1325 1 0.525 0.625 0.125
1323 1 0.55 0.6 0.15
1327 1 0.575 0.625 0.175
1333 1 0.625 0.625 0.125
1331 1 0.65 0.6 0.15
1335 1 0.675 0.625 0.175
1339 1 0.75 0.6 0.15
1341 1 0.725 0.625 0.125
1343 1 0.775 0.625 0.175
1347 1 0.85 0.6 0.15
1349 1 0.825 0.625 0.125
1351 1 0.875 0.625 0.175
1357 1 0.925 0.625 0.125
1355 1 0.95 0.6 0.15
1359 1 0.975 0.625 0.175
1282 1 0 0.65 0.15
1286 1 0.025 0.675 0.175
1363 1 0.05 0.7 0.15
1288 1 0.075 0.675 0.125